 #  Simple cubic Br oriented X=[100] Y=[010] Z=[001].

55956 atoms
1 atom types
0.0 666.0 xlo xhi
0.0 366.0 ylo yhi
0.0 1.0 zlo zhi

Atoms

1 1 26.000000000000 20.000000000000 0.000000000000 1.0 7 8 9 
2 1 26.000000000000 21.000000000000 0.000000000000 1.0 7 8 9 
3 1 26.000000000000 48.000000000000 0.000000000000 1.0 7 8 9 
4 1 26.000000000000 49.000000000000 0.000000000000 1.0 7 8 9 
5 1 26.000000000000 76.000000000000 0.000000000000 1.0 7 8 9 
6 1 26.000000000000 77.000000000000 0.000000000000 1.0 7 8 9 
7 1 26.000000000000 86.000000000000 0.000000000000 1.0 7 8 9 
8 1 26.000000000000 87.000000000000 0.000000000000 1.0 7 8 9 
9 1 26.000000000000 114.000000000000 0.000000000000 1.0 7 8 9 
10 1 26.000000000000 115.000000000000 0.000000000000 1.0 7 8 9 
11 1 26.000000000000 142.000000000000 0.000000000000 1.0 7 8 9 
12 1 26.000000000000 143.000000000000 0.000000000000 1.0 7 8 9 
13 1 26.000000000000 170.000000000000 0.000000000000 1.0 7 8 9 
14 1 26.000000000000 171.000000000000 0.000000000000 1.0 7 8 9 
15 1 26.000000000000 198.000000000000 0.000000000000 1.0 7 8 9 
16 1 26.000000000000 199.000000000000 0.000000000000 1.0 7 8 9 
17 1 26.000000000000 208.000000000000 0.000000000000 1.0 7 8 9 
18 1 26.000000000000 209.000000000000 0.000000000000 1.0 7 8 9 
19 1 26.000000000000 236.000000000000 0.000000000000 1.0 7 8 9 
20 1 26.000000000000 237.000000000000 0.000000000000 1.0 7 8 9 
21 1 26.000000000000 264.000000000000 0.000000000000 1.0 7 8 9 
22 1 26.000000000000 265.000000000000 0.000000000000 1.0 7 8 9 
23 1 26.000000000000 292.000000000000 0.000000000000 1.0 7 8 9 
24 1 26.000000000000 293.000000000000 0.000000000000 1.0 7 8 9 
25 1 26.000000000000 302.000000000000 0.000000000000 1.0 7 8 9 
26 1 26.000000000000 303.000000000000 0.000000000000 1.0 7 8 9 
27 1 26.000000000000 320.000000000000 0.000000000000 1.0 7 8 9 
28 1 26.000000000000 321.000000000000 0.000000000000 1.0 7 8 9 
29 1 26.000000000000 330.000000000000 0.000000000000 1.0 7 8 9 
30 1 26.000000000000 331.000000000000 0.000000000000 1.0 7 8 9 
31 1 26.000000000000 348.000000000000 0.000000000000 1.0 7 8 9 
32 1 26.000000000000 349.000000000000 0.000000000000 1.0 7 8 9 
33 1 26.000000000000 376.000000000000 0.000000000000 1.0 7 8 9 
34 1 26.000000000000 377.000000000000 0.000000000000 1.0 7 8 9 
35 1 26.000000000000 386.000000000000 0.000000000000 1.0 7 8 9 
36 1 26.000000000000 387.000000000000 0.000000000000 1.0 7 8 9 
37 1 26.000000000000 404.000000000000 0.000000000000 1.0 7 8 9 
38 1 26.000000000000 405.000000000000 0.000000000000 1.0 7 8 9 
39 1 26.000000000000 414.000000000000 0.000000000000 1.0 7 8 9 
40 1 26.000000000000 415.000000000000 0.000000000000 1.0 7 8 9 
41 1 26.000000000000 442.000000000000 0.000000000000 1.0 7 8 9 
42 1 26.000000000000 443.000000000000 0.000000000000 1.0 7 8 9 
43 1 26.000000000000 470.000000000000 0.000000000000 1.0 7 8 9 
44 1 26.000000000000 471.000000000000 0.000000000000 1.0 7 8 9 
45 1 26.000000000000 536.000000000000 0.000000000000 1.0 7 8 9 
46 1 26.000000000000 537.000000000000 0.000000000000 1.0 7 8 9 
47 1 26.000000000000 564.000000000000 0.000000000000 1.0 7 8 9 
48 1 26.000000000000 565.000000000000 0.000000000000 1.0 7 8 9 
49 1 26.000000000000 574.000000000000 0.000000000000 1.0 7 8 9 
50 1 26.000000000000 575.000000000000 0.000000000000 1.0 7 8 9 
51 1 26.000000000000 592.000000000000 0.000000000000 1.0 7 8 9 
52 1 26.000000000000 593.000000000000 0.000000000000 1.0 7 8 9 
53 1 26.000000000000 602.000000000000 0.000000000000 1.0 7 8 9 
54 1 26.000000000000 603.000000000000 0.000000000000 1.0 7 8 9 
55 1 26.000000000000 630.000000000000 0.000000000000 1.0 7 8 9 
56 1 26.000000000000 631.000000000000 0.000000000000 1.0 7 8 9 
57 1 26.000000000000 658.000000000000 0.000000000000 1.0 7 8 9 
58 1 26.000000000000 659.000000000000 0.000000000000 1.0 7 8 9 
59 1 27.000000000000 20.000000000000 0.000000000000 1.0 7 8 9 
60 1 27.000000000000 21.000000000000 0.000000000000 1.0 7 8 9 
61 1 27.000000000000 48.000000000000 0.000000000000 1.0 7 8 9 
62 1 27.000000000000 49.000000000000 0.000000000000 1.0 7 8 9 
63 1 27.000000000000 76.000000000000 0.000000000000 1.0 7 8 9 
64 1 27.000000000000 77.000000000000 0.000000000000 1.0 7 8 9 
65 1 27.000000000000 86.000000000000 0.000000000000 1.0 7 8 9 
66 1 27.000000000000 87.000000000000 0.000000000000 1.0 7 8 9 
67 1 27.000000000000 114.000000000000 0.000000000000 1.0 7 8 9 
68 1 27.000000000000 115.000000000000 0.000000000000 1.0 7 8 9 
69 1 27.000000000000 142.000000000000 0.000000000000 1.0 7 8 9 
70 1 27.000000000000 143.000000000000 0.000000000000 1.0 7 8 9 
71 1 27.000000000000 170.000000000000 0.000000000000 1.0 7 8 9 
72 1 27.000000000000 171.000000000000 0.000000000000 1.0 7 8 9 
73 1 27.000000000000 198.000000000000 0.000000000000 1.0 7 8 9 
74 1 27.000000000000 199.000000000000 0.000000000000 1.0 7 8 9 
75 1 27.000000000000 208.000000000000 0.000000000000 1.0 7 8 9 
76 1 27.000000000000 209.000000000000 0.000000000000 1.0 7 8 9 
77 1 27.000000000000 236.000000000000 0.000000000000 1.0 7 8 9 
78 1 27.000000000000 237.000000000000 0.000000000000 1.0 7 8 9 
79 1 27.000000000000 264.000000000000 0.000000000000 1.0 7 8 9 
80 1 27.000000000000 265.000000000000 0.000000000000 1.0 7 8 9 
81 1 27.000000000000 292.000000000000 0.000000000000 1.0 7 8 9 
82 1 27.000000000000 293.000000000000 0.000000000000 1.0 7 8 9 
83 1 27.000000000000 302.000000000000 0.000000000000 1.0 7 8 9 
84 1 27.000000000000 303.000000000000 0.000000000000 1.0 7 8 9 
85 1 27.000000000000 320.000000000000 0.000000000000 1.0 7 8 9 
86 1 27.000000000000 321.000000000000 0.000000000000 1.0 7 8 9 
87 1 27.000000000000 330.000000000000 0.000000000000 1.0 7 8 9 
88 1 27.000000000000 331.000000000000 0.000000000000 1.0 7 8 9 
89 1 27.000000000000 348.000000000000 0.000000000000 1.0 7 8 9 
90 1 27.000000000000 349.000000000000 0.000000000000 1.0 7 8 9 
91 1 27.000000000000 376.000000000000 0.000000000000 1.0 7 8 9 
92 1 27.000000000000 377.000000000000 0.000000000000 1.0 7 8 9 
93 1 27.000000000000 386.000000000000 0.000000000000 1.0 7 8 9 
94 1 27.000000000000 387.000000000000 0.000000000000 1.0 7 8 9 
95 1 27.000000000000 404.000000000000 0.000000000000 1.0 7 8 9 
96 1 27.000000000000 405.000000000000 0.000000000000 1.0 7 8 9 
97 1 27.000000000000 414.000000000000 0.000000000000 1.0 7 8 9 
98 1 27.000000000000 415.000000000000 0.000000000000 1.0 7 8 9 
99 1 27.000000000000 442.000000000000 0.000000000000 1.0 7 8 9 
100 1 27.000000000000 443.000000000000 0.000000000000 1.0 7 8 9 
101 1 27.000000000000 470.000000000000 0.000000000000 1.0 7 8 9 
102 1 27.000000000000 471.000000000000 0.000000000000 1.0 7 8 9 
103 1 27.000000000000 536.000000000000 0.000000000000 1.0 7 8 9 
104 1 27.000000000000 537.000000000000 0.000000000000 1.0 7 8 9 
105 1 27.000000000000 564.000000000000 0.000000000000 1.0 7 8 9 
106 1 27.000000000000 565.000000000000 0.000000000000 1.0 7 8 9 
107 1 27.000000000000 574.000000000000 0.000000000000 1.0 7 8 9 
108 1 27.000000000000 575.000000000000 0.000000000000 1.0 7 8 9 
109 1 27.000000000000 592.000000000000 0.000000000000 1.0 7 8 9 
110 1 27.000000000000 593.000000000000 0.000000000000 1.0 7 8 9 
111 1 27.000000000000 602.000000000000 0.000000000000 1.0 7 8 9 
112 1 27.000000000000 603.000000000000 0.000000000000 1.0 7 8 9 
113 1 27.000000000000 630.000000000000 0.000000000000 1.0 7 8 9 
114 1 27.000000000000 631.000000000000 0.000000000000 1.0 7 8 9 
115 1 27.000000000000 658.000000000000 0.000000000000 1.0 7 8 9 
116 1 27.000000000000 659.000000000000 0.000000000000 1.0 7 8 9 
117 1 28.000000000000 0.000000000000 0.000000000000 1.0 7 8 9 
118 1 28.000000000000 1.000000000000 0.000000000000 1.0 7 8 9 
119 1 28.000000000000 2.000000000000 0.000000000000 1.0 7 8 9 
120 1 28.000000000000 3.000000000000 0.000000000000 1.0 7 8 9 
121 1 28.000000000000 10.000000000000 0.000000000000 1.0 7 8 9 
122 1 28.000000000000 11.000000000000 0.000000000000 1.0 7 8 9 
123 1 28.000000000000 12.000000000000 0.000000000000 1.0 7 8 9 
124 1 28.000000000000 13.000000000000 0.000000000000 1.0 7 8 9 
125 1 28.000000000000 20.000000000000 0.000000000000 1.0 7 8 9 
126 1 28.000000000000 21.000000000000 0.000000000000 1.0 7 8 9 
127 1 28.000000000000 28.000000000000 0.000000000000 1.0 7 8 9 
128 1 28.000000000000 29.000000000000 0.000000000000 1.0 7 8 9 
129 1 28.000000000000 30.000000000000 0.000000000000 1.0 7 8 9 
130 1 28.000000000000 31.000000000000 0.000000000000 1.0 7 8 9 
131 1 28.000000000000 38.000000000000 0.000000000000 1.0 7 8 9 
132 1 28.000000000000 39.000000000000 0.000000000000 1.0 7 8 9 
133 1 28.000000000000 40.000000000000 0.000000000000 1.0 7 8 9 
134 1 28.000000000000 41.000000000000 0.000000000000 1.0 7 8 9 
135 1 28.000000000000 48.000000000000 0.000000000000 1.0 7 8 9 
136 1 28.000000000000 49.000000000000 0.000000000000 1.0 7 8 9 
137 1 28.000000000000 58.000000000000 0.000000000000 1.0 7 8 9 
138 1 28.000000000000 59.000000000000 0.000000000000 1.0 7 8 9 
139 1 28.000000000000 66.000000000000 0.000000000000 1.0 7 8 9 
140 1 28.000000000000 67.000000000000 0.000000000000 1.0 7 8 9 
141 1 28.000000000000 68.000000000000 0.000000000000 1.0 7 8 9 
142 1 28.000000000000 69.000000000000 0.000000000000 1.0 7 8 9 
143 1 28.000000000000 76.000000000000 0.000000000000 1.0 7 8 9 
144 1 28.000000000000 77.000000000000 0.000000000000 1.0 7 8 9 
145 1 28.000000000000 86.000000000000 0.000000000000 1.0 7 8 9 
146 1 28.000000000000 87.000000000000 0.000000000000 1.0 7 8 9 
147 1 28.000000000000 94.000000000000 0.000000000000 1.0 7 8 9 
148 1 28.000000000000 95.000000000000 0.000000000000 1.0 7 8 9 
149 1 28.000000000000 96.000000000000 0.000000000000 1.0 7 8 9 
150 1 28.000000000000 97.000000000000 0.000000000000 1.0 7 8 9 
151 1 28.000000000000 104.000000000000 0.000000000000 1.0 7 8 9 
152 1 28.000000000000 105.000000000000 0.000000000000 1.0 7 8 9 
153 1 28.000000000000 114.000000000000 0.000000000000 1.0 7 8 9 
154 1 28.000000000000 115.000000000000 0.000000000000 1.0 7 8 9 
155 1 28.000000000000 122.000000000000 0.000000000000 1.0 7 8 9 
156 1 28.000000000000 123.000000000000 0.000000000000 1.0 7 8 9 
157 1 28.000000000000 124.000000000000 0.000000000000 1.0 7 8 9 
158 1 28.000000000000 125.000000000000 0.000000000000 1.0 7 8 9 
159 1 28.000000000000 132.000000000000 0.000000000000 1.0 7 8 9 
160 1 28.000000000000 133.000000000000 0.000000000000 1.0 7 8 9 
161 1 28.000000000000 134.000000000000 0.000000000000 1.0 7 8 9 
162 1 28.000000000000 135.000000000000 0.000000000000 1.0 7 8 9 
163 1 28.000000000000 142.000000000000 0.000000000000 1.0 7 8 9 
164 1 28.000000000000 143.000000000000 0.000000000000 1.0 7 8 9 
165 1 28.000000000000 150.000000000000 0.000000000000 1.0 7 8 9 
166 1 28.000000000000 151.000000000000 0.000000000000 1.0 7 8 9 
167 1 28.000000000000 152.000000000000 0.000000000000 1.0 7 8 9 
168 1 28.000000000000 153.000000000000 0.000000000000 1.0 7 8 9 
169 1 28.000000000000 160.000000000000 0.000000000000 1.0 7 8 9 
170 1 28.000000000000 161.000000000000 0.000000000000 1.0 7 8 9 
171 1 28.000000000000 162.000000000000 0.000000000000 1.0 7 8 9 
172 1 28.000000000000 163.000000000000 0.000000000000 1.0 7 8 9 
173 1 28.000000000000 170.000000000000 0.000000000000 1.0 7 8 9 
174 1 28.000000000000 171.000000000000 0.000000000000 1.0 7 8 9 
175 1 28.000000000000 180.000000000000 0.000000000000 1.0 7 8 9 
176 1 28.000000000000 181.000000000000 0.000000000000 1.0 7 8 9 
177 1 28.000000000000 188.000000000000 0.000000000000 1.0 7 8 9 
178 1 28.000000000000 189.000000000000 0.000000000000 1.0 7 8 9 
179 1 28.000000000000 190.000000000000 0.000000000000 1.0 7 8 9 
180 1 28.000000000000 191.000000000000 0.000000000000 1.0 7 8 9 
181 1 28.000000000000 198.000000000000 0.000000000000 1.0 7 8 9 
182 1 28.000000000000 199.000000000000 0.000000000000 1.0 7 8 9 
183 1 28.000000000000 208.000000000000 0.000000000000 1.0 7 8 9 
184 1 28.000000000000 209.000000000000 0.000000000000 1.0 7 8 9 
185 1 28.000000000000 216.000000000000 0.000000000000 1.0 7 8 9 
186 1 28.000000000000 217.000000000000 0.000000000000 1.0 7 8 9 
187 1 28.000000000000 218.000000000000 0.000000000000 1.0 7 8 9 
188 1 28.000000000000 219.000000000000 0.000000000000 1.0 7 8 9 
189 1 28.000000000000 226.000000000000 0.000000000000 1.0 7 8 9 
190 1 28.000000000000 227.000000000000 0.000000000000 1.0 7 8 9 
191 1 28.000000000000 236.000000000000 0.000000000000 1.0 7 8 9 
192 1 28.000000000000 237.000000000000 0.000000000000 1.0 7 8 9 
193 1 28.000000000000 244.000000000000 0.000000000000 1.0 7 8 9 
194 1 28.000000000000 245.000000000000 0.000000000000 1.0 7 8 9 
195 1 28.000000000000 246.000000000000 0.000000000000 1.0 7 8 9 
196 1 28.000000000000 247.000000000000 0.000000000000 1.0 7 8 9 
197 1 28.000000000000 254.000000000000 0.000000000000 1.0 7 8 9 
198 1 28.000000000000 255.000000000000 0.000000000000 1.0 7 8 9 
199 1 28.000000000000 256.000000000000 0.000000000000 1.0 7 8 9 
200 1 28.000000000000 257.000000000000 0.000000000000 1.0 7 8 9 
201 1 28.000000000000 264.000000000000 0.000000000000 1.0 7 8 9 
202 1 28.000000000000 265.000000000000 0.000000000000 1.0 7 8 9 
203 1 28.000000000000 272.000000000000 0.000000000000 1.0 7 8 9 
204 1 28.000000000000 273.000000000000 0.000000000000 1.0 7 8 9 
205 1 28.000000000000 274.000000000000 0.000000000000 1.0 7 8 9 
206 1 28.000000000000 275.000000000000 0.000000000000 1.0 7 8 9 
207 1 28.000000000000 282.000000000000 0.000000000000 1.0 7 8 9 
208 1 28.000000000000 283.000000000000 0.000000000000 1.0 7 8 9 
209 1 28.000000000000 284.000000000000 0.000000000000 1.0 7 8 9 
210 1 28.000000000000 285.000000000000 0.000000000000 1.0 7 8 9 
211 1 28.000000000000 292.000000000000 0.000000000000 1.0 7 8 9 
212 1 28.000000000000 293.000000000000 0.000000000000 1.0 7 8 9 
213 1 28.000000000000 302.000000000000 0.000000000000 1.0 7 8 9 
214 1 28.000000000000 303.000000000000 0.000000000000 1.0 7 8 9 
215 1 28.000000000000 310.000000000000 0.000000000000 1.0 7 8 9 
216 1 28.000000000000 311.000000000000 0.000000000000 1.0 7 8 9 
217 1 28.000000000000 312.000000000000 0.000000000000 1.0 7 8 9 
218 1 28.000000000000 313.000000000000 0.000000000000 1.0 7 8 9 
219 1 28.000000000000 320.000000000000 0.000000000000 1.0 7 8 9 
220 1 28.000000000000 321.000000000000 0.000000000000 1.0 7 8 9 
221 1 28.000000000000 330.000000000000 0.000000000000 1.0 7 8 9 
222 1 28.000000000000 331.000000000000 0.000000000000 1.0 7 8 9 
223 1 28.000000000000 338.000000000000 0.000000000000 1.0 7 8 9 
224 1 28.000000000000 339.000000000000 0.000000000000 1.0 7 8 9 
225 1 28.000000000000 340.000000000000 0.000000000000 1.0 7 8 9 
226 1 28.000000000000 341.000000000000 0.000000000000 1.0 7 8 9 
227 1 28.000000000000 348.000000000000 0.000000000000 1.0 7 8 9 
228 1 28.000000000000 349.000000000000 0.000000000000 1.0 7 8 9 
229 1 28.000000000000 358.000000000000 0.000000000000 1.0 7 8 9 
230 1 28.000000000000 359.000000000000 0.000000000000 1.0 7 8 9 
231 1 28.000000000000 366.000000000000 0.000000000000 1.0 7 8 9 
232 1 28.000000000000 367.000000000000 0.000000000000 1.0 7 8 9 
233 1 28.000000000000 368.000000000000 0.000000000000 1.0 7 8 9 
234 1 28.000000000000 369.000000000000 0.000000000000 1.0 7 8 9 
235 1 28.000000000000 376.000000000000 0.000000000000 1.0 7 8 9 
236 1 28.000000000000 377.000000000000 0.000000000000 1.0 7 8 9 
237 1 28.000000000000 386.000000000000 0.000000000000 1.0 7 8 9 
238 1 28.000000000000 387.000000000000 0.000000000000 1.0 7 8 9 
239 1 28.000000000000 394.000000000000 0.000000000000 1.0 7 8 9 
240 1 28.000000000000 395.000000000000 0.000000000000 1.0 7 8 9 
241 1 28.000000000000 396.000000000000 0.000000000000 1.0 7 8 9 
242 1 28.000000000000 397.000000000000 0.000000000000 1.0 7 8 9 
243 1 28.000000000000 404.000000000000 0.000000000000 1.0 7 8 9 
244 1 28.000000000000 405.000000000000 0.000000000000 1.0 7 8 9 
245 1 28.000000000000 414.000000000000 0.000000000000 1.0 7 8 9 
246 1 28.000000000000 415.000000000000 0.000000000000 1.0 7 8 9 
247 1 28.000000000000 422.000000000000 0.000000000000 1.0 7 8 9 
248 1 28.000000000000 423.000000000000 0.000000000000 1.0 7 8 9 
249 1 28.000000000000 424.000000000000 0.000000000000 1.0 7 8 9 
250 1 28.000000000000 425.000000000000 0.000000000000 1.0 7 8 9 
251 1 28.000000000000 432.000000000000 0.000000000000 1.0 7 8 9 
252 1 28.000000000000 433.000000000000 0.000000000000 1.0 7 8 9 
253 1 28.000000000000 434.000000000000 0.000000000000 1.0 7 8 9 
254 1 28.000000000000 435.000000000000 0.000000000000 1.0 7 8 9 
255 1 28.000000000000 442.000000000000 0.000000000000 1.0 7 8 9 
256 1 28.000000000000 443.000000000000 0.000000000000 1.0 7 8 9 
257 1 28.000000000000 450.000000000000 0.000000000000 1.0 7 8 9 
258 1 28.000000000000 451.000000000000 0.000000000000 1.0 7 8 9 
259 1 28.000000000000 452.000000000000 0.000000000000 1.0 7 8 9 
260 1 28.000000000000 453.000000000000 0.000000000000 1.0 7 8 9 
261 1 28.000000000000 460.000000000000 0.000000000000 1.0 7 8 9 
262 1 28.000000000000 461.000000000000 0.000000000000 1.0 7 8 9 
263 1 28.000000000000 462.000000000000 0.000000000000 1.0 7 8 9 
264 1 28.000000000000 463.000000000000 0.000000000000 1.0 7 8 9 
265 1 28.000000000000 470.000000000000 0.000000000000 1.0 7 8 9 
266 1 28.000000000000 471.000000000000 0.000000000000 1.0 7 8 9 
267 1 28.000000000000 480.000000000000 0.000000000000 1.0 7 8 9 
268 1 28.000000000000 481.000000000000 0.000000000000 1.0 7 8 9 
269 1 28.000000000000 488.000000000000 0.000000000000 1.0 7 8 9 
270 1 28.000000000000 489.000000000000 0.000000000000 1.0 7 8 9 
271 1 28.000000000000 490.000000000000 0.000000000000 1.0 7 8 9 
272 1 28.000000000000 491.000000000000 0.000000000000 1.0 7 8 9 
273 1 28.000000000000 498.000000000000 0.000000000000 1.0 7 8 9 
274 1 28.000000000000 499.000000000000 0.000000000000 1.0 7 8 9 
275 1 28.000000000000 508.000000000000 0.000000000000 1.0 7 8 9 
276 1 28.000000000000 509.000000000000 0.000000000000 1.0 7 8 9 
277 1 28.000000000000 516.000000000000 0.000000000000 1.0 7 8 9 
278 1 28.000000000000 517.000000000000 0.000000000000 1.0 7 8 9 
279 1 28.000000000000 518.000000000000 0.000000000000 1.0 7 8 9 
280 1 28.000000000000 519.000000000000 0.000000000000 1.0 7 8 9 
281 1 28.000000000000 526.000000000000 0.000000000000 1.0 7 8 9 
282 1 28.000000000000 527.000000000000 0.000000000000 1.0 7 8 9 
283 1 28.000000000000 528.000000000000 0.000000000000 1.0 7 8 9 
284 1 28.000000000000 529.000000000000 0.000000000000 1.0 7 8 9 
285 1 28.000000000000 536.000000000000 0.000000000000 1.0 7 8 9 
286 1 28.000000000000 537.000000000000 0.000000000000 1.0 7 8 9 
287 1 28.000000000000 544.000000000000 0.000000000000 1.0 7 8 9 
288 1 28.000000000000 545.000000000000 0.000000000000 1.0 7 8 9 
289 1 28.000000000000 546.000000000000 0.000000000000 1.0 7 8 9 
290 1 28.000000000000 547.000000000000 0.000000000000 1.0 7 8 9 
291 1 28.000000000000 554.000000000000 0.000000000000 1.0 7 8 9 
292 1 28.000000000000 555.000000000000 0.000000000000 1.0 7 8 9 
293 1 28.000000000000 556.000000000000 0.000000000000 1.0 7 8 9 
294 1 28.000000000000 557.000000000000 0.000000000000 1.0 7 8 9 
295 1 28.000000000000 564.000000000000 0.000000000000 1.0 7 8 9 
296 1 28.000000000000 565.000000000000 0.000000000000 1.0 7 8 9 
297 1 28.000000000000 574.000000000000 0.000000000000 1.0 7 8 9 
298 1 28.000000000000 575.000000000000 0.000000000000 1.0 7 8 9 
299 1 28.000000000000 582.000000000000 0.000000000000 1.0 7 8 9 
300 1 28.000000000000 583.000000000000 0.000000000000 1.0 7 8 9 
301 1 28.000000000000 584.000000000000 0.000000000000 1.0 7 8 9 
302 1 28.000000000000 585.000000000000 0.000000000000 1.0 7 8 9 
303 1 28.000000000000 592.000000000000 0.000000000000 1.0 7 8 9 
304 1 28.000000000000 593.000000000000 0.000000000000 1.0 7 8 9 
305 1 28.000000000000 602.000000000000 0.000000000000 1.0 7 8 9 
306 1 28.000000000000 603.000000000000 0.000000000000 1.0 7 8 9 
307 1 28.000000000000 610.000000000000 0.000000000000 1.0 7 8 9 
308 1 28.000000000000 611.000000000000 0.000000000000 1.0 7 8 9 
309 1 28.000000000000 612.000000000000 0.000000000000 1.0 7 8 9 
310 1 28.000000000000 613.000000000000 0.000000000000 1.0 7 8 9 
311 1 28.000000000000 620.000000000000 0.000000000000 1.0 7 8 9 
312 1 28.000000000000 621.000000000000 0.000000000000 1.0 7 8 9 
313 1 28.000000000000 630.000000000000 0.000000000000 1.0 7 8 9 
314 1 28.000000000000 631.000000000000 0.000000000000 1.0 7 8 9 
315 1 28.000000000000 638.000000000000 0.000000000000 1.0 7 8 9 
316 1 28.000000000000 639.000000000000 0.000000000000 1.0 7 8 9 
317 1 28.000000000000 640.000000000000 0.000000000000 1.0 7 8 9 
318 1 28.000000000000 641.000000000000 0.000000000000 1.0 7 8 9 
319 1 28.000000000000 648.000000000000 0.000000000000 1.0 7 8 9 
320 1 28.000000000000 649.000000000000 0.000000000000 1.0 7 8 9 
321 1 28.000000000000 650.000000000000 0.000000000000 1.0 7 8 9 
322 1 28.000000000000 651.000000000000 0.000000000000 1.0 7 8 9 
323 1 28.000000000000 658.000000000000 0.000000000000 1.0 7 8 9 
324 1 28.000000000000 659.000000000000 0.000000000000 1.0 7 8 9 
325 1 29.000000000000 0.000000000000 0.000000000000 1.0 7 8 9 
326 1 29.000000000000 1.000000000000 0.000000000000 1.0 7 8 9 
327 1 29.000000000000 2.000000000000 0.000000000000 1.0 7 8 9 
328 1 29.000000000000 3.000000000000 0.000000000000 1.0 7 8 9 
329 1 29.000000000000 10.000000000000 0.000000000000 1.0 7 8 9 
330 1 29.000000000000 11.000000000000 0.000000000000 1.0 7 8 9 
331 1 29.000000000000 12.000000000000 0.000000000000 1.0 7 8 9 
332 1 29.000000000000 13.000000000000 0.000000000000 1.0 7 8 9 
333 1 29.000000000000 20.000000000000 0.000000000000 1.0 7 8 9 
334 1 29.000000000000 21.000000000000 0.000000000000 1.0 7 8 9 
335 1 29.000000000000 28.000000000000 0.000000000000 1.0 7 8 9 
336 1 29.000000000000 29.000000000000 0.000000000000 1.0 7 8 9 
337 1 29.000000000000 30.000000000000 0.000000000000 1.0 7 8 9 
338 1 29.000000000000 31.000000000000 0.000000000000 1.0 7 8 9 
339 1 29.000000000000 38.000000000000 0.000000000000 1.0 7 8 9 
340 1 29.000000000000 39.000000000000 0.000000000000 1.0 7 8 9 
341 1 29.000000000000 40.000000000000 0.000000000000 1.0 7 8 9 
342 1 29.000000000000 41.000000000000 0.000000000000 1.0 7 8 9 
343 1 29.000000000000 48.000000000000 0.000000000000 1.0 7 8 9 
344 1 29.000000000000 49.000000000000 0.000000000000 1.0 7 8 9 
345 1 29.000000000000 58.000000000000 0.000000000000 1.0 7 8 9 
346 1 29.000000000000 59.000000000000 0.000000000000 1.0 7 8 9 
347 1 29.000000000000 66.000000000000 0.000000000000 1.0 7 8 9 
348 1 29.000000000000 67.000000000000 0.000000000000 1.0 7 8 9 
349 1 29.000000000000 68.000000000000 0.000000000000 1.0 7 8 9 
350 1 29.000000000000 69.000000000000 0.000000000000 1.0 7 8 9 
351 1 29.000000000000 76.000000000000 0.000000000000 1.0 7 8 9 
352 1 29.000000000000 77.000000000000 0.000000000000 1.0 7 8 9 
353 1 29.000000000000 86.000000000000 0.000000000000 1.0 7 8 9 
354 1 29.000000000000 87.000000000000 0.000000000000 1.0 7 8 9 
355 1 29.000000000000 94.000000000000 0.000000000000 1.0 7 8 9 
356 1 29.000000000000 95.000000000000 0.000000000000 1.0 7 8 9 
357 1 29.000000000000 96.000000000000 0.000000000000 1.0 7 8 9 
358 1 29.000000000000 97.000000000000 0.000000000000 1.0 7 8 9 
359 1 29.000000000000 104.000000000000 0.000000000000 1.0 7 8 9 
360 1 29.000000000000 105.000000000000 0.000000000000 1.0 7 8 9 
361 1 29.000000000000 114.000000000000 0.000000000000 1.0 7 8 9 
362 1 29.000000000000 115.000000000000 0.000000000000 1.0 7 8 9 
363 1 29.000000000000 122.000000000000 0.000000000000 1.0 7 8 9 
364 1 29.000000000000 123.000000000000 0.000000000000 1.0 7 8 9 
365 1 29.000000000000 124.000000000000 0.000000000000 1.0 7 8 9 
366 1 29.000000000000 125.000000000000 0.000000000000 1.0 7 8 9 
367 1 29.000000000000 132.000000000000 0.000000000000 1.0 7 8 9 
368 1 29.000000000000 133.000000000000 0.000000000000 1.0 7 8 9 
369 1 29.000000000000 134.000000000000 0.000000000000 1.0 7 8 9 
370 1 29.000000000000 135.000000000000 0.000000000000 1.0 7 8 9 
371 1 29.000000000000 142.000000000000 0.000000000000 1.0 7 8 9 
372 1 29.000000000000 143.000000000000 0.000000000000 1.0 7 8 9 
373 1 29.000000000000 150.000000000000 0.000000000000 1.0 7 8 9 
374 1 29.000000000000 151.000000000000 0.000000000000 1.0 7 8 9 
375 1 29.000000000000 152.000000000000 0.000000000000 1.0 7 8 9 
376 1 29.000000000000 153.000000000000 0.000000000000 1.0 7 8 9 
377 1 29.000000000000 160.000000000000 0.000000000000 1.0 7 8 9 
378 1 29.000000000000 161.000000000000 0.000000000000 1.0 7 8 9 
379 1 29.000000000000 162.000000000000 0.000000000000 1.0 7 8 9 
380 1 29.000000000000 163.000000000000 0.000000000000 1.0 7 8 9 
381 1 29.000000000000 170.000000000000 0.000000000000 1.0 7 8 9 
382 1 29.000000000000 171.000000000000 0.000000000000 1.0 7 8 9 
383 1 29.000000000000 180.000000000000 0.000000000000 1.0 7 8 9 
384 1 29.000000000000 181.000000000000 0.000000000000 1.0 7 8 9 
385 1 29.000000000000 188.000000000000 0.000000000000 1.0 7 8 9 
386 1 29.000000000000 189.000000000000 0.000000000000 1.0 7 8 9 
387 1 29.000000000000 190.000000000000 0.000000000000 1.0 7 8 9 
388 1 29.000000000000 191.000000000000 0.000000000000 1.0 7 8 9 
389 1 29.000000000000 198.000000000000 0.000000000000 1.0 7 8 9 
390 1 29.000000000000 199.000000000000 0.000000000000 1.0 7 8 9 
391 1 29.000000000000 208.000000000000 0.000000000000 1.0 7 8 9 
392 1 29.000000000000 209.000000000000 0.000000000000 1.0 7 8 9 
393 1 29.000000000000 216.000000000000 0.000000000000 1.0 7 8 9 
394 1 29.000000000000 217.000000000000 0.000000000000 1.0 7 8 9 
395 1 29.000000000000 218.000000000000 0.000000000000 1.0 7 8 9 
396 1 29.000000000000 219.000000000000 0.000000000000 1.0 7 8 9 
397 1 29.000000000000 226.000000000000 0.000000000000 1.0 7 8 9 
398 1 29.000000000000 227.000000000000 0.000000000000 1.0 7 8 9 
399 1 29.000000000000 236.000000000000 0.000000000000 1.0 7 8 9 
400 1 29.000000000000 237.000000000000 0.000000000000 1.0 7 8 9 
401 1 29.000000000000 244.000000000000 0.000000000000 1.0 7 8 9 
402 1 29.000000000000 245.000000000000 0.000000000000 1.0 7 8 9 
403 1 29.000000000000 246.000000000000 0.000000000000 1.0 7 8 9 
404 1 29.000000000000 247.000000000000 0.000000000000 1.0 7 8 9 
405 1 29.000000000000 254.000000000000 0.000000000000 1.0 7 8 9 
406 1 29.000000000000 255.000000000000 0.000000000000 1.0 7 8 9 
407 1 29.000000000000 256.000000000000 0.000000000000 1.0 7 8 9 
408 1 29.000000000000 257.000000000000 0.000000000000 1.0 7 8 9 
409 1 29.000000000000 264.000000000000 0.000000000000 1.0 7 8 9 
410 1 29.000000000000 265.000000000000 0.000000000000 1.0 7 8 9 
411 1 29.000000000000 272.000000000000 0.000000000000 1.0 7 8 9 
412 1 29.000000000000 273.000000000000 0.000000000000 1.0 7 8 9 
413 1 29.000000000000 274.000000000000 0.000000000000 1.0 7 8 9 
414 1 29.000000000000 275.000000000000 0.000000000000 1.0 7 8 9 
415 1 29.000000000000 282.000000000000 0.000000000000 1.0 7 8 9 
416 1 29.000000000000 283.000000000000 0.000000000000 1.0 7 8 9 
417 1 29.000000000000 284.000000000000 0.000000000000 1.0 7 8 9 
418 1 29.000000000000 285.000000000000 0.000000000000 1.0 7 8 9 
419 1 29.000000000000 292.000000000000 0.000000000000 1.0 7 8 9 
420 1 29.000000000000 293.000000000000 0.000000000000 1.0 7 8 9 
421 1 29.000000000000 302.000000000000 0.000000000000 1.0 7 8 9 
422 1 29.000000000000 303.000000000000 0.000000000000 1.0 7 8 9 
423 1 29.000000000000 310.000000000000 0.000000000000 1.0 7 8 9 
424 1 29.000000000000 311.000000000000 0.000000000000 1.0 7 8 9 
425 1 29.000000000000 312.000000000000 0.000000000000 1.0 7 8 9 
426 1 29.000000000000 313.000000000000 0.000000000000 1.0 7 8 9 
427 1 29.000000000000 320.000000000000 0.000000000000 1.0 7 8 9 
428 1 29.000000000000 321.000000000000 0.000000000000 1.0 7 8 9 
429 1 29.000000000000 330.000000000000 0.000000000000 1.0 7 8 9 
430 1 29.000000000000 331.000000000000 0.000000000000 1.0 7 8 9 
431 1 29.000000000000 338.000000000000 0.000000000000 1.0 7 8 9 
432 1 29.000000000000 339.000000000000 0.000000000000 1.0 7 8 9 
433 1 29.000000000000 340.000000000000 0.000000000000 1.0 7 8 9 
434 1 29.000000000000 341.000000000000 0.000000000000 1.0 7 8 9 
435 1 29.000000000000 348.000000000000 0.000000000000 1.0 7 8 9 
436 1 29.000000000000 349.000000000000 0.000000000000 1.0 7 8 9 
437 1 29.000000000000 358.000000000000 0.000000000000 1.0 7 8 9 
438 1 29.000000000000 359.000000000000 0.000000000000 1.0 7 8 9 
439 1 29.000000000000 366.000000000000 0.000000000000 1.0 7 8 9 
440 1 29.000000000000 367.000000000000 0.000000000000 1.0 7 8 9 
441 1 29.000000000000 368.000000000000 0.000000000000 1.0 7 8 9 
442 1 29.000000000000 369.000000000000 0.000000000000 1.0 7 8 9 
443 1 29.000000000000 376.000000000000 0.000000000000 1.0 7 8 9 
444 1 29.000000000000 377.000000000000 0.000000000000 1.0 7 8 9 
445 1 29.000000000000 386.000000000000 0.000000000000 1.0 7 8 9 
446 1 29.000000000000 387.000000000000 0.000000000000 1.0 7 8 9 
447 1 29.000000000000 394.000000000000 0.000000000000 1.0 7 8 9 
448 1 29.000000000000 395.000000000000 0.000000000000 1.0 7 8 9 
449 1 29.000000000000 396.000000000000 0.000000000000 1.0 7 8 9 
450 1 29.000000000000 397.000000000000 0.000000000000 1.0 7 8 9 
451 1 29.000000000000 404.000000000000 0.000000000000 1.0 7 8 9 
452 1 29.000000000000 405.000000000000 0.000000000000 1.0 7 8 9 
453 1 29.000000000000 414.000000000000 0.000000000000 1.0 7 8 9 
454 1 29.000000000000 415.000000000000 0.000000000000 1.0 7 8 9 
455 1 29.000000000000 422.000000000000 0.000000000000 1.0 7 8 9 
456 1 29.000000000000 423.000000000000 0.000000000000 1.0 7 8 9 
457 1 29.000000000000 424.000000000000 0.000000000000 1.0 7 8 9 
458 1 29.000000000000 425.000000000000 0.000000000000 1.0 7 8 9 
459 1 29.000000000000 432.000000000000 0.000000000000 1.0 7 8 9 
460 1 29.000000000000 433.000000000000 0.000000000000 1.0 7 8 9 
461 1 29.000000000000 434.000000000000 0.000000000000 1.0 7 8 9 
462 1 29.000000000000 435.000000000000 0.000000000000 1.0 7 8 9 