default raster(raster)
496 atoms
4 atom types
0.0 0.1 xlo xhi
0.0 0.1 ylo yhi
0 0.001 zlo zhi

Atoms

1 3 1 1e-06 0.002 0.0015 0.0005 0.0465 0.0165 0 0.0465 0.0165 0
2 3 1 1e-06 0.002 0.0015 0.0005 0.0475 0.0165 0 0.0475 0.0165 0
3 3 1 1e-06 0.002 0.0015 0.0005 0.0485 0.0165 0 0.0485 0.0165 0
4 3 1 1e-06 0.002 0.0015 0.0005 0.0495 0.0165 0 0.0495 0.0165 0
5 3 1 1e-06 0.002 0.0015 0.0005 0.0505 0.0165 0 0.0505 0.0165 0
6 3 1 1e-06 0.002 0.0015 0.0005 0.051500000000000004 0.0165 0 0.051500000000000004 0.0165 0
7 3 1 1e-06 0.002 0.0015 0.0005 0.0525 0.0165 0 0.0525 0.0165 0
8 3 1 1e-06 0.002 0.0015 0.0005 0.0535 0.0165 0 0.0535 0.0165 0
9 3 1 1e-06 0.002 0.0015 0.0005 0.0545 0.0165 0 0.0545 0.0165 0
10 3 1 1e-06 0.002 0.0015 0.0005 0.0455 0.0175 0 0.0455 0.0175 0
11 3 1 1e-06 0.002 0.0015 0.0005 0.0465 0.0175 0 0.0465 0.0175 0
12 3 1 1e-06 0.002 0.0015 0.0005 0.0475 0.0175 0 0.0475 0.0175 0
13 3 1 1e-06 0.002 0.0015 0.0005 0.0485 0.0175 0 0.0485 0.0175 0
14 3 1 1e-06 0.002 0.0015 0.0005 0.0495 0.0175 0 0.0495 0.0175 0
15 3 1 1e-06 0.002 0.0015 0.0005 0.0505 0.0175 0 0.0505 0.0175 0
16 3 1 1e-06 0.002 0.0015 0.0005 0.051500000000000004 0.0175 0 0.051500000000000004 0.0175 0
17 3 1 1e-06 0.002 0.0015 0.0005 0.0525 0.0175 0 0.0525 0.0175 0
18 3 1 1e-06 0.002 0.0015 0.0005 0.0535 0.0175 0 0.0535 0.0175 0
19 3 1 1e-06 0.002 0.0015 0.0005 0.0545 0.0175 0 0.0545 0.0175 0
20 3 1 1e-06 0.002 0.0015 0.0005 0.0555 0.0175 0 0.0555 0.0175 0
21 3 1 1e-06 0.002 0.0015 0.0005 0.0445 0.0185 0 0.0445 0.0185 0
22 3 1 1e-06 0.002 0.0015 0.0005 0.0455 0.0185 0 0.0455 0.0185 0
23 3 1 1e-06 0.002 0.0015 0.0005 0.0465 0.0185 0 0.0465 0.0185 0
24 3 1 1e-06 0.002 0.0015 0.0005 0.0475 0.0185 0 0.0475 0.0185 0
25 3 1 1e-06 0.002 0.0015 0.0005 0.0485 0.0185 0 0.0485 0.0185 0
26 3 1 1e-06 0.002 0.0015 0.0005 0.0495 0.0185 0 0.0495 0.0185 0
27 3 1 1e-06 0.002 0.0015 0.0005 0.0505 0.0185 0 0.0505 0.0185 0
28 3 1 1e-06 0.002 0.0015 0.0005 0.051500000000000004 0.0185 0 0.051500000000000004 0.0185 0
29 3 1 1e-06 0.002 0.0015 0.0005 0.0525 0.0185 0 0.0525 0.0185 0
30 3 1 1e-06 0.002 0.0015 0.0005 0.0535 0.0185 0 0.0535 0.0185 0
31 3 1 1e-06 0.002 0.0015 0.0005 0.0545 0.0185 0 0.0545 0.0185 0
32 3 1 1e-06 0.002 0.0015 0.0005 0.0555 0.0185 0 0.0555 0.0185 0
33 3 1 1e-06 0.002 0.0015 0.0005 0.0565 0.0185 0 0.0565 0.0185 0
34 3 1 1e-06 0.002 0.0015 0.0005 0.043500000000000004 0.0195 0 0.043500000000000004 0.0195 0
35 3 1 1e-06 0.002 0.0015 0.0005 0.0445 0.0195 0 0.0445 0.0195 0
36 3 1 1e-06 0.002 0.0015 0.0005 0.0455 0.0195 0 0.0455 0.0195 0
37 3 1 1e-06 0.002 0.0015 0.0005 0.0465 0.0195 0 0.0465 0.0195 0
38 3 1 1e-06 0.002 0.0015 0.0005 0.0475 0.0195 0 0.0475 0.0195 0
39 3 1 1e-06 0.002 0.0015 0.0005 0.0485 0.0195 0 0.0485 0.0195 0
40 3 1 1e-06 0.002 0.0015 0.0005 0.0495 0.0195 0 0.0495 0.0195 0
41 3 1 1e-06 0.002 0.0015 0.0005 0.0505 0.0195 0 0.0505 0.0195 0
42 3 1 1e-06 0.002 0.0015 0.0005 0.051500000000000004 0.0195 0 0.051500000000000004 0.0195 0
43 3 1 1e-06 0.002 0.0015 0.0005 0.0525 0.0195 0 0.0525 0.0195 0
44 3 1 1e-06 0.002 0.0015 0.0005 0.0535 0.0195 0 0.0535 0.0195 0
45 3 1 1e-06 0.002 0.0015 0.0005 0.0545 0.0195 0 0.0545 0.0195 0
46 3 1 1e-06 0.002 0.0015 0.0005 0.0555 0.0195 0 0.0555 0.0195 0
47 3 1 1e-06 0.002 0.0015 0.0005 0.0565 0.0195 0 0.0565 0.0195 0
48 3 1 1e-06 0.002 0.0015 0.0005 0.0575 0.0195 0 0.0575 0.0195 0
49 3 1 1e-06 0.002 0.0015 0.0005 0.0425 0.0205 0 0.0425 0.0205 0
50 3 1 1e-06 0.002 0.0015 0.0005 0.043500000000000004 0.0205 0 0.043500000000000004 0.0205 0
51 3 1 1e-06 0.002 0.0015 0.0005 0.0445 0.0205 0 0.0445 0.0205 0
52 3 1 1e-06 0.002 0.0015 0.0005 0.0455 0.0205 0 0.0455 0.0205 0
53 3 1 1e-06 0.002 0.0015 0.0005 0.0465 0.0205 0 0.0465 0.0205 0
54 3 1 1e-06 0.002 0.0015 0.0005 0.0495 0.0205 0 0.0495 0.0205 0
55 3 1 1e-06 0.002 0.0015 0.0005 0.0505 0.0205 0 0.0505 0.0205 0
56 3 1 1e-06 0.002 0.0015 0.0005 0.051500000000000004 0.0205 0 0.051500000000000004 0.0205 0
57 3 1 1e-06 0.002 0.0015 0.0005 0.0525 0.0205 0 0.0525 0.0205 0
58 3 1 1e-06 0.002 0.0015 0.0005 0.0535 0.0205 0 0.0535 0.0205 0
59 3 1 1e-06 0.002 0.0015 0.0005 0.0545 0.0205 0 0.0545 0.0205 0
60 3 1 1e-06 0.002 0.0015 0.0005 0.0555 0.0205 0 0.0555 0.0205 0
61 3 1 1e-06 0.002 0.0015 0.0005 0.0565 0.0205 0 0.0565 0.0205 0
62 3 1 1e-06 0.002 0.0015 0.0005 0.0575 0.0205 0 0.0575 0.0205 0
63 3 1 1e-06 0.002 0.0015 0.0005 0.0585 0.0205 0 0.0585 0.0205 0
64 3 1 1e-06 0.002 0.0015 0.0005 0.0415 0.021500000000000002 0 0.0415 0.021500000000000002 0
65 3 1 1e-06 0.002 0.0015 0.0005 0.0425 0.021500000000000002 0 0.0425 0.021500000000000002 0
66 3 1 1e-06 0.002 0.0015 0.0005 0.043500000000000004 0.021500000000000002 0 0.043500000000000004 0.021500000000000002 0
67 3 1 1e-06 0.002 0.0015 0.0005 0.0445 0.021500000000000002 0 0.0445 0.021500000000000002 0
68 3 1 1e-06 0.002 0.0015 0.0005 0.0455 0.021500000000000002 0 0.0455 0.021500000000000002 0
69 3 1 1e-06 0.002 0.0015 0.0005 0.0465 0.021500000000000002 0 0.0465 0.021500000000000002 0
70 3 1 1e-06 0.002 0.0015 0.0005 0.051500000000000004 0.021500000000000002 0 0.051500000000000004 0.021500000000000002 0
71 3 1 1e-06 0.002 0.0015 0.0005 0.0525 0.021500000000000002 0 0.0525 0.021500000000000002 0
72 3 1 1e-06 0.002 0.0015 0.0005 0.0535 0.021500000000000002 0 0.0535 0.021500000000000002 0
73 3 1 1e-06 0.002 0.0015 0.0005 0.0545 0.021500000000000002 0 0.0545 0.021500000000000002 0
74 3 1 1e-06 0.002 0.0015 0.0005 0.0555 0.021500000000000002 0 0.0555 0.021500000000000002 0
75 3 1 1e-06 0.002 0.0015 0.0005 0.0565 0.021500000000000002 0 0.0565 0.021500000000000002 0
76 3 1 1e-06 0.002 0.0015 0.0005 0.0575 0.021500000000000002 0 0.0575 0.021500000000000002 0
77 3 1 1e-06 0.002 0.0015 0.0005 0.0585 0.021500000000000002 0 0.0585 0.021500000000000002 0
78 3 1 1e-06 0.002 0.0015 0.0005 0.059500000000000004 0.021500000000000002 0 0.059500000000000004 0.021500000000000002 0
79 3 1 1e-06 0.002 0.0015 0.0005 0.0415 0.0225 0 0.0415 0.0225 0
80 3 1 1e-06 0.002 0.0015 0.0005 0.0425 0.0225 0 0.0425 0.0225 0
81 3 1 1e-06 0.002 0.0015 0.0005 0.043500000000000004 0.0225 0 0.043500000000000004 0.0225 0
82 3 1 1e-06 0.002 0.0015 0.0005 0.0445 0.0225 0 0.0445 0.0225 0
83 3 1 1e-06 0.002 0.0015 0.0005 0.0455 0.0225 0 0.0455 0.0225 0
84 3 1 1e-06 0.002 0.0015 0.0005 0.0465 0.0225 0 0.0465 0.0225 0
85 3 1 1e-06 0.002 0.0015 0.0005 0.0525 0.0225 0 0.0525 0.0225 0
86 3 1 1e-06 0.002 0.0015 0.0005 0.0535 0.0225 0 0.0535 0.0225 0
87 3 1 1e-06 0.002 0.0015 0.0005 0.0545 0.0225 0 0.0545 0.0225 0
88 3 1 1e-06 0.002 0.0015 0.0005 0.0555 0.0225 0 0.0555 0.0225 0
89 3 1 1e-06 0.002 0.0015 0.0005 0.0565 0.0225 0 0.0565 0.0225 0
90 3 1 1e-06 0.002 0.0015 0.0005 0.0575 0.0225 0 0.0575 0.0225 0
91 3 1 1e-06 0.002 0.0015 0.0005 0.0585 0.0225 0 0.0585 0.0225 0
92 3 1 1e-06 0.002 0.0015 0.0005 0.059500000000000004 0.0225 0 0.059500000000000004 0.0225 0
93 3 1 1e-06 0.002 0.0015 0.0005 0.0415 0.0235 0 0.0415 0.0235 0
94 3 1 1e-06 0.002 0.0015 0.0005 0.0425 0.0235 0 0.0425 0.0235 0
95 3 1 1e-06 0.002 0.0015 0.0005 0.043500000000000004 0.0235 0 0.043500000000000004 0.0235 0
96 3 1 1e-06 0.002 0.0015 0.0005 0.0445 0.0235 0 0.0445 0.0235 0
97 3 1 1e-06 0.002 0.0015 0.0005 0.0455 0.0235 0 0.0455 0.0235 0
98 3 1 1e-06 0.002 0.0015 0.0005 0.0465 0.0235 0 0.0465 0.0235 0
99 3 1 1e-06 0.002 0.0015 0.0005 0.0545 0.0235 0 0.0545 0.0235 0
100 3 1 1e-06 0.002 0.0015 0.0005 0.0555 0.0235 0 0.0555 0.0235 0
101 3 1 1e-06 0.002 0.0015 0.0005 0.0565 0.0235 0 0.0565 0.0235 0
102 3 1 1e-06 0.002 0.0015 0.0005 0.0575 0.0235 0 0.0575 0.0235 0
103 3 1 1e-06 0.002 0.0015 0.0005 0.0585 0.0235 0 0.0585 0.0235 0
104 3 1 1e-06 0.002 0.0015 0.0005 0.059500000000000004 0.0235 0 0.059500000000000004 0.0235 0
105 3 1 1e-06 0.002 0.0015 0.0005 0.0415 0.0245 0 0.0415 0.0245 0
106 3 1 1e-06 0.002 0.0015 0.0005 0.0425 0.0245 0 0.0425 0.0245 0
107 3 1 1e-06 0.002 0.0015 0.0005 0.043500000000000004 0.0245 0 0.043500000000000004 0.0245 0
108 3 1 1e-06 0.002 0.0015 0.0005 0.0445 0.0245 0 0.0445 0.0245 0
109 3 1 1e-06 0.002 0.0015 0.0005 0.0455 0.0245 0 0.0455 0.0245 0
110 3 1 1e-06 0.002 0.0015 0.0005 0.0465 0.0245 0 0.0465 0.0245 0
111 3 1 1e-06 0.002 0.0015 0.0005 0.0565 0.0245 0 0.0565 0.0245 0
112 3 1 1e-06 0.002 0.0015 0.0005 0.0575 0.0245 0 0.0575 0.0245 0
113 3 1 1e-06 0.002 0.0015 0.0005 0.0585 0.0245 0 0.0585 0.0245 0
114 3 1 1e-06 0.002 0.0015 0.0005 0.059500000000000004 0.0245 0 0.059500000000000004 0.0245 0
115 3 1 1e-06 0.002 0.0015 0.0005 0.0405 0.025500000000000002 0 0.0405 0.025500000000000002 0
116 3 1 1e-06 0.002 0.0015 0.0005 0.0415 0.025500000000000002 0 0.0415 0.025500000000000002 0
117 3 1 1e-06 0.002 0.0015 0.0005 0.0425 0.025500000000000002 0 0.0425 0.025500000000000002 0
118 3 1 1e-06 0.002 0.0015 0.0005 0.043500000000000004 0.025500000000000002 0 0.043500000000000004 0.025500000000000002 0
119 3 1 1e-06 0.002 0.0015 0.0005 0.0445 0.025500000000000002 0 0.0445 0.025500000000000002 0
120 3 1 1e-06 0.002 0.0015 0.0005 0.0455 0.025500000000000002 0 0.0455 0.025500000000000002 0
121 3 1 1e-06 0.002 0.0015 0.0005 0.0465 0.025500000000000002 0 0.0465 0.025500000000000002 0
122 3 1 1e-06 0.002 0.0015 0.0005 0.0585 0.025500000000000002 0 0.0585 0.025500000000000002 0
123 3 1 1e-06 0.002 0.0015 0.0005 0.059500000000000004 0.025500000000000002 0 0.059500000000000004 0.025500000000000002 0
124 3 1 1e-06 0.002 0.0015 0.0005 0.0605 0.025500000000000002 0 0.0605 0.025500000000000002 0
125 3 1 1e-06 0.002 0.0015 0.0005 0.0415 0.0265 0 0.0415 0.0265 0
126 3 1 1e-06 0.002 0.0015 0.0005 0.0425 0.0265 0 0.0425 0.0265 0
127 3 1 1e-06 0.002 0.0015 0.0005 0.043500000000000004 0.0265 0 0.043500000000000004 0.0265 0
128 3 1 1e-06 0.002 0.0015 0.0005 0.0445 0.0265 0 0.0445 0.0265 0
129 3 1 1e-06 0.002 0.0015 0.0005 0.0455 0.0265 0 0.0455 0.0265 0
130 3 1 1e-06 0.002 0.0015 0.0005 0.0465 0.0265 0 0.0465 0.0265 0
131 3 1 1e-06 0.002 0.0015 0.0005 0.0565 0.0265 0 0.0565 0.0265 0
132 3 1 1e-06 0.002 0.0015 0.0005 0.0575 0.0265 0 0.0575 0.0265 0
133 3 1 1e-06 0.002 0.0015 0.0005 0.0585 0.0265 0 0.0585 0.0265 0
134 3 1 1e-06 0.002 0.0015 0.0005 0.059500000000000004 0.0265 0 0.059500000000000004 0.0265 0
135 3 1 1e-06 0.002 0.0015 0.0005 0.0415 0.0275 0 0.0415 0.0275 0
136 3 1 1e-06 0.002 0.0015 0.0005 0.0425 0.0275 0 0.0425 0.0275 0
137 3 1 1e-06 0.002 0.0015 0.0005 0.043500000000000004 0.0275 0 0.043500000000000004 0.0275 0
138 3 1 1e-06 0.002 0.0015 0.0005 0.0445 0.0275 0 0.0445 0.0275 0
139 3 1 1e-06 0.002 0.0015 0.0005 0.0455 0.0275 0 0.0455 0.0275 0
140 3 1 1e-06 0.002 0.0015 0.0005 0.0465 0.0275 0 0.0465 0.0275 0
141 3 1 1e-06 0.002 0.0015 0.0005 0.0545 0.0275 0 0.0545 0.0275 0
142 3 1 1e-06 0.002 0.0015 0.0005 0.0555 0.0275 0 0.0555 0.0275 0
143 3 1 1e-06 0.002 0.0015 0.0005 0.0565 0.0275 0 0.0565 0.0275 0
144 3 1 1e-06 0.002 0.0015 0.0005 0.0575 0.0275 0 0.0575 0.0275 0
145 3 1 1e-06 0.002 0.0015 0.0005 0.0585 0.0275 0 0.0585 0.0275 0
146 3 1 1e-06 0.002 0.0015 0.0005 0.059500000000000004 0.0275 0 0.059500000000000004 0.0275 0
147 3 1 1e-06 0.002 0.0015 0.0005 0.0415 0.0285 0 0.0415 0.0285 0
148 3 1 1e-06 0.002 0.0015 0.0005 0.0425 0.0285 0 0.0425 0.0285 0
149 3 1 1e-06 0.002 0.0015 0.0005 0.043500000000000004 0.0285 0 0.043500000000000004 0.0285 0
150 3 1 1e-06 0.002 0.0015 0.0005 0.0445 0.0285 0 0.0445 0.0285 0
151 3 1 1e-06 0.002 0.0015 0.0005 0.0455 0.0285 0 0.0455 0.0285 0
152 3 1 1e-06 0.002 0.0015 0.0005 0.0465 0.0285 0 0.0465 0.0285 0
153 3 1 1e-06 0.002 0.0015 0.0005 0.0525 0.0285 0 0.0525 0.0285 0
154 3 1 1e-06 0.002 0.0015 0.0005 0.0535 0.0285 0 0.0535 0.0285 0
155 3 1 1e-06 0.002 0.0015 0.0005 0.0545 0.0285 0 0.0545 0.0285 0
156 3 1 1e-06 0.002 0.0015 0.0005 0.0555 0.0285 0 0.0555 0.0285 0
157 3 1 1e-06 0.002 0.0015 0.0005 0.0565 0.0285 0 0.0565 0.0285 0
158 3 1 1e-06 0.002 0.0015 0.0005 0.0575 0.0285 0 0.0575 0.0285 0
159 3 1 1e-06 0.002 0.0015 0.0005 0.0585 0.0285 0 0.0585 0.0285 0
160 3 1 1e-06 0.002 0.0015 0.0005 0.059500000000000004 0.0285 0 0.059500000000000004 0.0285 0
161 3 1 1e-06 0.002 0.0015 0.0005 0.0415 0.029500000000000002 0 0.0415 0.029500000000000002 0
162 3 1 1e-06 0.002 0.0015 0.0005 0.0425 0.029500000000000002 0 0.0425 0.029500000000000002 0
163 3 1 1e-06 0.002 0.0015 0.0005 0.043500000000000004 0.029500000000000002 0 0.043500000000000004 0.029500000000000002 0
164 3 1 1e-06 0.002 0.0015 0.0005 0.0445 0.029500000000000002 0 0.0445 0.029500000000000002 0
165 3 1 1e-06 0.002 0.0015 0.0005 0.0455 0.029500000000000002 0 0.0455 0.029500000000000002 0
166 3 1 1e-06 0.002 0.0015 0.0005 0.0465 0.029500000000000002 0 0.0465 0.029500000000000002 0
167 3 1 1e-06 0.002 0.0015 0.0005 0.051500000000000004 0.029500000000000002 0 0.051500000000000004 0.029500000000000002 0
168 3 1 1e-06 0.002 0.0015 0.0005 0.0525 0.029500000000000002 0 0.0525 0.029500000000000002 0
169 3 1 1e-06 0.002 0.0015 0.0005 0.0535 0.029500000000000002 0 0.0535 0.029500000000000002 0
170 3 1 1e-06 0.002 0.0015 0.0005 0.0545 0.029500000000000002 0 0.0545 0.029500000000000002 0
171 3 1 1e-06 0.002 0.0015 0.0005 0.0555 0.029500000000000002 0 0.0555 0.029500000000000002 0
172 3 1 1e-06 0.002 0.0015 0.0005 0.0565 0.029500000000000002 0 0.0565 0.029500000000000002 0
173 3 1 1e-06 0.002 0.0015 0.0005 0.0575 0.029500000000000002 0 0.0575 0.029500000000000002 0
174 3 1 1e-06 0.002 0.0015 0.0005 0.0585 0.029500000000000002 0 0.0585 0.029500000000000002 0
175 3 1 1e-06 0.002 0.0015 0.0005 0.059500000000000004 0.029500000000000002 0 0.059500000000000004 0.029500000000000002 0
176 3 1 1e-06 0.002 0.0015 0.0005 0.0425 0.0305 0 0.0425 0.0305 0
177 3 1 1e-06 0.002 0.0015 0.0005 0.043500000000000004 0.0305 0 0.043500000000000004 0.0305 0
178 3 1 1e-06 0.002 0.0015 0.0005 0.0445 0.0305 0 0.0445 0.0305 0
179 3 1 1e-06 0.002 0.0015 0.0005 0.0455 0.0305 0 0.0455 0.0305 0
180 3 1 1e-06 0.002 0.0015 0.0005 0.0465 0.0305 0 0.0465 0.0305 0
181 3 1 1e-06 0.002 0.0015 0.0005 0.0495 0.0305 0 0.0495 0.0305 0
182 3 1 1e-06 0.002 0.0015 0.0005 0.0505 0.0305 0 0.0505 0.0305 0
183 3 1 1e-06 0.002 0.0015 0.0005 0.051500000000000004 0.0305 0 0.051500000000000004 0.0305 0
184 3 1 1e-06 0.002 0.0015 0.0005 0.0525 0.0305 0 0.0525 0.0305 0
185 3 1 1e-06 0.002 0.0015 0.0005 0.0535 0.0305 0 0.0535 0.0305 0
186 3 1 1e-06 0.002 0.0015 0.0005 0.0545 0.0305 0 0.0545 0.0305 0
187 3 1 1e-06 0.002 0.0015 0.0005 0.0555 0.0305 0 0.0555 0.0305 0
188 3 1 1e-06 0.002 0.0015 0.0005 0.0565 0.0305 0 0.0565 0.0305 0
189 3 1 1e-06 0.002 0.0015 0.0005 0.0575 0.0305 0 0.0575 0.0305 0
190 3 1 1e-06 0.002 0.0015 0.0005 0.0585 0.0305 0 0.0585 0.0305 0
191 3 1 1e-06 0.002 0.0015 0.0005 0.043500000000000004 0.0315 0 0.043500000000000004 0.0315 0
192 3 1 1e-06 0.002 0.0015 0.0005 0.0445 0.0315 0 0.0445 0.0315 0
193 3 1 1e-06 0.002 0.0015 0.0005 0.0455 0.0315 0 0.0455 0.0315 0
194 3 1 1e-06 0.002 0.0015 0.0005 0.0465 0.0315 0 0.0465 0.0315 0
195 3 1 1e-06 0.002 0.0015 0.0005 0.0475 0.0315 0 0.0475 0.0315 0
196 3 1 1e-06 0.002 0.0015 0.0005 0.0485 0.0315 0 0.0485 0.0315 0
197 3 1 1e-06 0.002 0.0015 0.0005 0.0495 0.0315 0 0.0495 0.0315 0
198 3 1 1e-06 0.002 0.0015 0.0005 0.0505 0.0315 0 0.0505 0.0315 0
199 3 1 1e-06 0.002 0.0015 0.0005 0.051500000000000004 0.0315 0 0.051500000000000004 0.0315 0
200 3 1 1e-06 0.002 0.0015 0.0005 0.0525 0.0315 0 0.0525 0.0315 0
201 3 1 1e-06 0.002 0.0015 0.0005 0.0535 0.0315 0 0.0535 0.0315 0
202 3 1 1e-06 0.002 0.0015 0.0005 0.0545 0.0315 0 0.0545 0.0315 0
203 3 1 1e-06 0.002 0.0015 0.0005 0.0555 0.0315 0 0.0555 0.0315 0
204 3 1 1e-06 0.002 0.0015 0.0005 0.0565 0.0315 0 0.0565 0.0315 0
205 3 1 1e-06 0.002 0.0015 0.0005 0.0575 0.0315 0 0.0575 0.0315 0
206 3 1 1e-06 0.002 0.0015 0.0005 0.0445 0.0325 0 0.0445 0.0325 0
207 3 1 1e-06 0.002 0.0015 0.0005 0.0455 0.0325 0 0.0455 0.0325 0
208 3 1 1e-06 0.002 0.0015 0.0005 0.0465 0.0325 0 0.0465 0.0325 0
209 3 1 1e-06 0.002 0.0015 0.0005 0.0475 0.0325 0 0.0475 0.0325 0
210 3 1 1e-06 0.002 0.0015 0.0005 0.0485 0.0325 0 0.0485 0.0325 0
211 3 1 1e-06 0.002 0.0015 0.0005 0.0495 0.0325 0 0.0495 0.0325 0
212 3 1 1e-06 0.002 0.0015 0.0005 0.0505 0.0325 0 0.0505 0.0325 0
213 3 1 1e-06 0.002 0.0015 0.0005 0.051500000000000004 0.0325 0 0.051500000000000004 0.0325 0
214 3 1 1e-06 0.002 0.0015 0.0005 0.0525 0.0325 0 0.0525 0.0325 0
215 3 1 1e-06 0.002 0.0015 0.0005 0.0535 0.0325 0 0.0535 0.0325 0
216 3 1 1e-06 0.002 0.0015 0.0005 0.0545 0.0325 0 0.0545 0.0325 0
217 3 1 1e-06 0.002 0.0015 0.0005 0.0555 0.0325 0 0.0555 0.0325 0
218 3 1 1e-06 0.002 0.0015 0.0005 0.0565 0.0325 0 0.0565 0.0325 0
219 3 1 1e-06 0.002 0.0015 0.0005 0.0455 0.0335 0 0.0455 0.0335 0
220 3 1 1e-06 0.002 0.0015 0.0005 0.0465 0.0335 0 0.0465 0.0335 0
221 3 1 1e-06 0.002 0.0015 0.0005 0.0475 0.0335 0 0.0475 0.0335 0
222 3 1 1e-06 0.002 0.0015 0.0005 0.0485 0.0335 0 0.0485 0.0335 0
223 3 1 1e-06 0.002 0.0015 0.0005 0.0495 0.0335 0 0.0495 0.0335 0
224 3 1 1e-06 0.002 0.0015 0.0005 0.0505 0.0335 0 0.0505 0.0335 0
225 3 1 1e-06 0.002 0.0015 0.0005 0.051500000000000004 0.0335 0 0.051500000000000004 0.0335 0
226 3 1 1e-06 0.002 0.0015 0.0005 0.0525 0.0335 0 0.0525 0.0335 0
227 3 1 1e-06 0.002 0.0015 0.0005 0.0535 0.0335 0 0.0535 0.0335 0
228 3 1 1e-06 0.002 0.0015 0.0005 0.0545 0.0335 0 0.0545 0.0335 0
229 3 1 1e-06 0.002 0.0015 0.0005 0.0555 0.0335 0 0.0555 0.0335 0
230 3 1 1e-06 0.002 0.0015 0.0005 0.0465 0.0345 0 0.0465 0.0345 0
231 3 1 1e-06 0.002 0.0015 0.0005 0.0475 0.0345 0 0.0475 0.0345 0
232 3 1 1e-06 0.002 0.0015 0.0005 0.0485 0.0345 0 0.0485 0.0345 0
233 3 1 1e-06 0.002 0.0015 0.0005 0.0495 0.0345 0 0.0495 0.0345 0
234 3 1 1e-06 0.002 0.0015 0.0005 0.0505 0.0345 0 0.0505 0.0345 0
235 3 1 1e-06 0.002 0.0015 0.0005 0.051500000000000004 0.0345 0 0.051500000000000004 0.0345 0
236 3 1 1e-06 0.002 0.0015 0.0005 0.0525 0.0345 0 0.0525 0.0345 0
237 3 1 1e-06 0.002 0.0015 0.0005 0.0535 0.0345 0 0.0535 0.0345 0
238 3 1 1e-06 0.002 0.0015 0.0005 0.0545 0.0345 0 0.0545 0.0345 0
239 3 1 1e-06 0.002 0.0015 0.0005 0.0505 0.035500000000000004 0 0.0505 0.035500000000000004 0
240 4 1 1e-06 0.002 0.0015 0.0005 0.0455 0.0675 0 0.0455 0.0675 0
241 4 1 1e-06 0.002 0.0015 0.0005 0.0465 0.0675 0 0.0465 0.0675 0
242 4 1 1e-06 0.002 0.0015 0.0005 0.0475 0.0675 0 0.0475 0.0675 0
243 4 1 1e-06 0.002 0.0015 0.0005 0.0485 0.0675 0 0.0485 0.0675 0
244 4 1 1e-06 0.002 0.0015 0.0005 0.0495 0.0675 0 0.0495 0.0675 0
245 4 1 1e-06 0.002 0.0015 0.0005 0.0505 0.0675 0 0.0505 0.0675 0
246 4 1 1e-06 0.002 0.0015 0.0005 0.051500000000000004 0.0675 0 0.051500000000000004 0.0675 0
247 4 1 1e-06 0.002 0.0015 0.0005 0.0525 0.0675 0 0.0525 0.0675 0
248 4 1 1e-06 0.002 0.0015 0.0005 0.0535 0.0675 0 0.0535 0.0675 0
249 4 1 1e-06 0.002 0.0015 0.0005 0.0545 0.0675 0 0.0545 0.0675 0
250 4 1 1e-06 0.002 0.0015 0.0005 0.0555 0.0675 0 0.0555 0.0675 0
251 4 1 1e-06 0.002 0.0015 0.0005 0.0455 0.0685 0 0.0455 0.0685 0
252 4 1 1e-06 0.002 0.0015 0.0005 0.0465 0.0685 0 0.0465 0.0685 0
253 4 1 1e-06 0.002 0.0015 0.0005 0.0475 0.0685 0 0.0475 0.0685 0
254 4 1 1e-06 0.002 0.0015 0.0005 0.0485 0.0685 0 0.0485 0.0685 0
255 4 1 1e-06 0.002 0.0015 0.0005 0.0495 0.0685 0 0.0495 0.0685 0
256 4 1 1e-06 0.002 0.0015 0.0005 0.0505 0.0685 0 0.0505 0.0685 0
257 4 1 1e-06 0.002 0.0015 0.0005 0.051500000000000004 0.0685 0 0.051500000000000004 0.0685 0
258 4 1 1e-06 0.002 0.0015 0.0005 0.0525 0.0685 0 0.0525 0.0685 0
259 4 1 1e-06 0.002 0.0015 0.0005 0.0535 0.0685 0 0.0535 0.0685 0
260 4 1 1e-06 0.002 0.0015 0.0005 0.0545 0.0685 0 0.0545 0.0685 0
261 4 1 1e-06 0.002 0.0015 0.0005 0.0555 0.0685 0 0.0555 0.0685 0
262 4 1 1e-06 0.002 0.0015 0.0005 0.0445 0.0695 0 0.0445 0.0695 0
263 4 1 1e-06 0.002 0.0015 0.0005 0.0455 0.0695 0 0.0455 0.0695 0
264 4 1 1e-06 0.002 0.0015 0.0005 0.0465 0.0695 0 0.0465 0.0695 0
265 4 1 1e-06 0.002 0.0015 0.0005 0.0475 0.0695 0 0.0475 0.0695 0
266 4 1 1e-06 0.002 0.0015 0.0005 0.0485 0.0695 0 0.0485 0.0695 0
267 4 1 1e-06 0.002 0.0015 0.0005 0.0495 0.0695 0 0.0495 0.0695 0
268 4 1 1e-06 0.002 0.0015 0.0005 0.0505 0.0695 0 0.0505 0.0695 0
269 4 1 1e-06 0.002 0.0015 0.0005 0.051500000000000004 0.0695 0 0.051500000000000004 0.0695 0
270 4 1 1e-06 0.002 0.0015 0.0005 0.0525 0.0695 0 0.0525 0.0695 0
271 4 1 1e-06 0.002 0.0015 0.0005 0.0535 0.0695 0 0.0535 0.0695 0
272 4 1 1e-06 0.002 0.0015 0.0005 0.0545 0.0695 0 0.0545 0.0695 0
273 4 1 1e-06 0.002 0.0015 0.0005 0.0555 0.0695 0 0.0555 0.0695 0
274 4 1 1e-06 0.002 0.0015 0.0005 0.0565 0.0695 0 0.0565 0.0695 0
275 4 1 1e-06 0.002 0.0015 0.0005 0.043500000000000004 0.07050000000000001 0 0.043500000000000004 0.07050000000000001 0
276 4 1 1e-06 0.002 0.0015 0.0005 0.0445 0.07050000000000001 0 0.0445 0.07050000000000001 0
277 4 1 1e-06 0.002 0.0015 0.0005 0.0455 0.07050000000000001 0 0.0455 0.07050000000000001 0
278 4 1 1e-06 0.002 0.0015 0.0005 0.0465 0.07050000000000001 0 0.0465 0.07050000000000001 0
279 4 1 1e-06 0.002 0.0015 0.0005 0.0475 0.07050000000000001 0 0.0475 0.07050000000000001 0
280 4 1 1e-06 0.002 0.0015 0.0005 0.0485 0.07050000000000001 0 0.0485 0.07050000000000001 0
281 4 1 1e-06 0.002 0.0015 0.0005 0.0495 0.07050000000000001 0 0.0495 0.07050000000000001 0
282 4 1 1e-06 0.002 0.0015 0.0005 0.0505 0.07050000000000001 0 0.0505 0.07050000000000001 0
283 4 1 1e-06 0.002 0.0015 0.0005 0.051500000000000004 0.07050000000000001 0 0.051500000000000004 0.07050000000000001 0
284 4 1 1e-06 0.002 0.0015 0.0005 0.0525 0.07050000000000001 0 0.0525 0.07050000000000001 0
285 4 1 1e-06 0.002 0.0015 0.0005 0.0535 0.07050000000000001 0 0.0535 0.07050000000000001 0
286 4 1 1e-06 0.002 0.0015 0.0005 0.0545 0.07050000000000001 0 0.0545 0.07050000000000001 0
287 4 1 1e-06 0.002 0.0015 0.0005 0.0555 0.07050000000000001 0 0.0555 0.07050000000000001 0
288 4 1 1e-06 0.002 0.0015 0.0005 0.0565 0.07050000000000001 0 0.0565 0.07050000000000001 0
289 4 1 1e-06 0.002 0.0015 0.0005 0.0575 0.07050000000000001 0 0.0575 0.07050000000000001 0
290 4 1 1e-06 0.002 0.0015 0.0005 0.043500000000000004 0.07150000000000001 0 0.043500000000000004 0.07150000000000001 0
291 4 1 1e-06 0.002 0.0015 0.0005 0.0445 0.07150000000000001 0 0.0445 0.07150000000000001 0
292 4 1 1e-06 0.002 0.0015 0.0005 0.0455 0.07150000000000001 0 0.0455 0.07150000000000001 0
293 4 1 1e-06 0.002 0.0015 0.0005 0.0465 0.07150000000000001 0 0.0465 0.07150000000000001 0
294 4 1 1e-06 0.002 0.0015 0.0005 0.0475 0.07150000000000001 0 0.0475 0.07150000000000001 0
295 4 1 1e-06 0.002 0.0015 0.0005 0.0485 0.07150000000000001 0 0.0485 0.07150000000000001 0
296 4 1 1e-06 0.002 0.0015 0.0005 0.0495 0.07150000000000001 0 0.0495 0.07150000000000001 0
297 4 1 1e-06 0.002 0.0015 0.0005 0.0505 0.07150000000000001 0 0.0505 0.07150000000000001 0
298 4 1 1e-06 0.002 0.0015 0.0005 0.051500000000000004 0.07150000000000001 0 0.051500000000000004 0.07150000000000001 0
299 4 1 1e-06 0.002 0.0015 0.0005 0.0525 0.07150000000000001 0 0.0525 0.07150000000000001 0
300 4 1 1e-06 0.002 0.0015 0.0005 0.0535 0.07150000000000001 0 0.0535 0.07150000000000001 0
301 4 1 1e-06 0.002 0.0015 0.0005 0.0545 0.07150000000000001 0 0.0545 0.07150000000000001 0
302 4 1 1e-06 0.002 0.0015 0.0005 0.0555 0.07150000000000001 0 0.0555 0.07150000000000001 0
303 4 1 1e-06 0.002 0.0015 0.0005 0.0565 0.07150000000000001 0 0.0565 0.07150000000000001 0
304 4 1 1e-06 0.002 0.0015 0.0005 0.0575 0.07150000000000001 0 0.0575 0.07150000000000001 0
305 4 1 1e-06 0.002 0.0015 0.0005 0.0425 0.0725 0 0.0425 0.0725 0
306 4 1 1e-06 0.002 0.0015 0.0005 0.043500000000000004 0.0725 0 0.043500000000000004 0.0725 0
307 4 1 1e-06 0.002 0.0015 0.0005 0.0445 0.0725 0 0.0445 0.0725 0
308 4 1 1e-06 0.002 0.0015 0.0005 0.0455 0.0725 0 0.0455 0.0725 0
309 4 1 1e-06 0.002 0.0015 0.0005 0.0465 0.0725 0 0.0465 0.0725 0
310 4 1 1e-06 0.002 0.0015 0.0005 0.0475 0.0725 0 0.0475 0.0725 0
311 4 1 1e-06 0.002 0.0015 0.0005 0.0485 0.0725 0 0.0485 0.0725 0
312 4 1 1e-06 0.002 0.0015 0.0005 0.0495 0.0725 0 0.0495 0.0725 0
313 4 1 1e-06 0.002 0.0015 0.0005 0.0505 0.0725 0 0.0505 0.0725 0
314 4 1 1e-06 0.002 0.0015 0.0005 0.051500000000000004 0.0725 0 0.051500000000000004 0.0725 0
315 4 1 1e-06 0.002 0.0015 0.0005 0.0525 0.0725 0 0.0525 0.0725 0
316 4 1 1e-06 0.002 0.0015 0.0005 0.0535 0.0725 0 0.0535 0.0725 0
317 4 1 1e-06 0.002 0.0015 0.0005 0.0545 0.0725 0 0.0545 0.0725 0
318 4 1 1e-06 0.002 0.0015 0.0005 0.0555 0.0725 0 0.0555 0.0725 0
319 4 1 1e-06 0.002 0.0015 0.0005 0.0565 0.0725 0 0.0565 0.0725 0
320 4 1 1e-06 0.002 0.0015 0.0005 0.0575 0.0725 0 0.0575 0.0725 0
321 4 1 1e-06 0.002 0.0015 0.0005 0.0585 0.0725 0 0.0585 0.0725 0
322 4 1 1e-06 0.002 0.0015 0.0005 0.0425 0.0735 0 0.0425 0.0735 0
323 4 1 1e-06 0.002 0.0015 0.0005 0.043500000000000004 0.0735 0 0.043500000000000004 0.0735 0
324 4 1 1e-06 0.002 0.0015 0.0005 0.0445 0.0735 0 0.0445 0.0735 0
325 4 1 1e-06 0.002 0.0015 0.0005 0.0455 0.0735 0 0.0455 0.0735 0
326 4 1 1e-06 0.002 0.0015 0.0005 0.0465 0.0735 0 0.0465 0.0735 0
327 4 1 1e-06 0.002 0.0015 0.0005 0.0475 0.0735 0 0.0475 0.0735 0
328 4 1 1e-06 0.002 0.0015 0.0005 0.0485 0.0735 0 0.0485 0.0735 0
329 4 1 1e-06 0.002 0.0015 0.0005 0.0495 0.0735 0 0.0495 0.0735 0
330 4 1 1e-06 0.002 0.0015 0.0005 0.0505 0.0735 0 0.0505 0.0735 0
331 4 1 1e-06 0.002 0.0015 0.0005 0.051500000000000004 0.0735 0 0.051500000000000004 0.0735 0
332 4 1 1e-06 0.002 0.0015 0.0005 0.0525 0.0735 0 0.0525 0.0735 0
333 4 1 1e-06 0.002 0.0015 0.0005 0.0535 0.0735 0 0.0535 0.0735 0
334 4 1 1e-06 0.002 0.0015 0.0005 0.0545 0.0735 0 0.0545 0.0735 0
335 4 1 1e-06 0.002 0.0015 0.0005 0.0555 0.0735 0 0.0555 0.0735 0
336 4 1 1e-06 0.002 0.0015 0.0005 0.0565 0.0735 0 0.0565 0.0735 0
337 4 1 1e-06 0.002 0.0015 0.0005 0.0575 0.0735 0 0.0575 0.0735 0
338 4 1 1e-06 0.002 0.0015 0.0005 0.0585 0.0735 0 0.0585 0.0735 0
339 4 1 1e-06 0.002 0.0015 0.0005 0.0415 0.0745 0 0.0415 0.0745 0
340 4 1 1e-06 0.002 0.0015 0.0005 0.0425 0.0745 0 0.0425 0.0745 0
341 4 1 1e-06 0.002 0.0015 0.0005 0.043500000000000004 0.0745 0 0.043500000000000004 0.0745 0
342 4 1 1e-06 0.002 0.0015 0.0005 0.0445 0.0745 0 0.0445 0.0745 0
343 4 1 1e-06 0.002 0.0015 0.0005 0.0455 0.0745 0 0.0455 0.0745 0
344 4 1 1e-06 0.002 0.0015 0.0005 0.0465 0.0745 0 0.0465 0.0745 0
345 4 1 1e-06 0.002 0.0015 0.0005 0.0475 0.0745 0 0.0475 0.0745 0
346 4 1 1e-06 0.002 0.0015 0.0005 0.0485 0.0745 0 0.0485 0.0745 0
347 4 1 1e-06 0.002 0.0015 0.0005 0.0495 0.0745 0 0.0495 0.0745 0
348 4 1 1e-06 0.002 0.0015 0.0005 0.0505 0.0745 0 0.0505 0.0745 0
349 4 1 1e-06 0.002 0.0015 0.0005 0.051500000000000004 0.0745 0 0.051500000000000004 0.0745 0
350 4 1 1e-06 0.002 0.0015 0.0005 0.0525 0.0745 0 0.0525 0.0745 0
351 4 1 1e-06 0.002 0.0015 0.0005 0.0535 0.0745 0 0.0535 0.0745 0
352 4 1 1e-06 0.002 0.0015 0.0005 0.0545 0.0745 0 0.0545 0.0745 0
353 4 1 1e-06 0.002 0.0015 0.0005 0.0555 0.0745 0 0.0555 0.0745 0
354 4 1 1e-06 0.002 0.0015 0.0005 0.0565 0.0745 0 0.0565 0.0745 0
355 4 1 1e-06 0.002 0.0015 0.0005 0.0575 0.0745 0 0.0575 0.0745 0
356 4 1 1e-06 0.002 0.0015 0.0005 0.0585 0.0745 0 0.0585 0.0745 0
357 4 1 1e-06 0.002 0.0015 0.0005 0.059500000000000004 0.0745 0 0.059500000000000004 0.0745 0
358 4 1 1e-06 0.002 0.0015 0.0005 0.0405 0.0755 0 0.0405 0.0755 0
359 4 1 1e-06 0.002 0.0015 0.0005 0.0415 0.0755 0 0.0415 0.0755 0
360 4 1 1e-06 0.002 0.0015 0.0005 0.0425 0.0755 0 0.0425 0.0755 0
361 4 1 1e-06 0.002 0.0015 0.0005 0.043500000000000004 0.0755 0 0.043500000000000004 0.0755 0
362 4 1 1e-06 0.002 0.0015 0.0005 0.0445 0.0755 0 0.0445 0.0755 0
363 4 1 1e-06 0.002 0.0015 0.0005 0.0455 0.0755 0 0.0455 0.0755 0
364 4 1 1e-06 0.002 0.0015 0.0005 0.0465 0.0755 0 0.0465 0.0755 0
365 4 1 1e-06 0.002 0.0015 0.0005 0.0475 0.0755 0 0.0475 0.0755 0
366 4 1 1e-06 0.002 0.0015 0.0005 0.0485 0.0755 0 0.0485 0.0755 0
367 4 1 1e-06 0.002 0.0015 0.0005 0.0495 0.0755 0 0.0495 0.0755 0
368 4 1 1e-06 0.002 0.0015 0.0005 0.0505 0.0755 0 0.0505 0.0755 0
369 4 1 1e-06 0.002 0.0015 0.0005 0.051500000000000004 0.0755 0 0.051500000000000004 0.0755 0
370 4 1 1e-06 0.002 0.0015 0.0005 0.0525 0.0755 0 0.0525 0.0755 0
371 4 1 1e-06 0.002 0.0015 0.0005 0.0535 0.0755 0 0.0535 0.0755 0
372 4 1 1e-06 0.002 0.0015 0.0005 0.0545 0.0755 0 0.0545 0.0755 0
373 4 1 1e-06 0.002 0.0015 0.0005 0.0555 0.0755 0 0.0555 0.0755 0
374 4 1 1e-06 0.002 0.0015 0.0005 0.0565 0.0755 0 0.0565 0.0755 0
375 4 1 1e-06 0.002 0.0015 0.0005 0.0575 0.0755 0 0.0575 0.0755 0
376 4 1 1e-06 0.002 0.0015 0.0005 0.0585 0.0755 0 0.0585 0.0755 0
377 4 1 1e-06 0.002 0.0015 0.0005 0.059500000000000004 0.0755 0 0.059500000000000004 0.0755 0
378 4 1 1e-06 0.002 0.0015 0.0005 0.0605 0.0755 0 0.0605 0.0755 0
379 4 1 1e-06 0.002 0.0015 0.0005 0.0415 0.0765 0 0.0415 0.0765 0
380 4 1 1e-06 0.002 0.0015 0.0005 0.0425 0.0765 0 0.0425 0.0765 0
381 4 1 1e-06 0.002 0.0015 0.0005 0.043500000000000004 0.0765 0 0.043500000000000004 0.0765 0
382 4 1 1e-06 0.002 0.0015 0.0005 0.0445 0.0765 0 0.0445 0.0765 0
383 4 1 1e-06 0.002 0.0015 0.0005 0.0455 0.0765 0 0.0455 0.0765 0
384 4 1 1e-06 0.002 0.0015 0.0005 0.0465 0.0765 0 0.0465 0.0765 0
385 4 1 1e-06 0.002 0.0015 0.0005 0.0475 0.0765 0 0.0475 0.0765 0
386 4 1 1e-06 0.002 0.0015 0.0005 0.0485 0.0765 0 0.0485 0.0765 0
387 4 1 1e-06 0.002 0.0015 0.0005 0.0495 0.0765 0 0.0495 0.0765 0
388 4 1 1e-06 0.002 0.0015 0.0005 0.0505 0.0765 0 0.0505 0.0765 0
389 4 1 1e-06 0.002 0.0015 0.0005 0.051500000000000004 0.0765 0 0.051500000000000004 0.0765 0
390 4 1 1e-06 0.002 0.0015 0.0005 0.0525 0.0765 0 0.0525 0.0765 0
391 4 1 1e-06 0.002 0.0015 0.0005 0.0535 0.0765 0 0.0535 0.0765 0
392 4 1 1e-06 0.002 0.0015 0.0005 0.0545 0.0765 0 0.0545 0.0765 0
393 4 1 1e-06 0.002 0.0015 0.0005 0.0555 0.0765 0 0.0555 0.0765 0
394 4 1 1e-06 0.002 0.0015 0.0005 0.0565 0.0765 0 0.0565 0.0765 0
395 4 1 1e-06 0.002 0.0015 0.0005 0.0575 0.0765 0 0.0575 0.0765 0
396 4 1 1e-06 0.002 0.0015 0.0005 0.0585 0.0765 0 0.0585 0.0765 0
397 4 1 1e-06 0.002 0.0015 0.0005 0.059500000000000004 0.0765 0 0.059500000000000004 0.0765 0
398 4 1 1e-06 0.002 0.0015 0.0005 0.0425 0.0775 0 0.0425 0.0775 0
399 4 1 1e-06 0.002 0.0015 0.0005 0.043500000000000004 0.0775 0 0.043500000000000004 0.0775 0
400 4 1 1e-06 0.002 0.0015 0.0005 0.0445 0.0775 0 0.0445 0.0775 0
401 4 1 1e-06 0.002 0.0015 0.0005 0.0455 0.0775 0 0.0455 0.0775 0
402 4 1 1e-06 0.002 0.0015 0.0005 0.0465 0.0775 0 0.0465 0.0775 0